23
	Energy:      98.3056389
C         -9.59970        4.87710       -1.74224
C         -9.10030        4.47438       -0.72870
C         -8.45427        3.96768        0.52880
C         -7.08053        3.47098        0.24282
C         -5.95014        3.10463        0.06735
C         -4.47611        2.70150       -0.07253
C         -3.30174        2.46072       -0.11731
C         -1.89710        2.25797       -0.12880
C         -1.41996        1.05675       -0.00030
C         -0.94276       -0.14476        0.12848
C          0.46092       -0.34633        0.11502
C          1.63654       -0.58993        0.06898
C          3.11175       -0.98685       -0.05878
C          4.23789       -1.36751       -0.23932
C          5.60004       -1.88867       -0.53390
C          6.36122       -2.12115        0.73947
C         -8.35429        5.11658        1.59930
C         -9.29648        2.79921        1.15671
C          6.35009       -0.85594       -1.45081
C          5.45419       -3.23065       -1.34257
C          6.95482       -2.30349        1.76569
H         -1.60428       -1.00281        0.16168
H         -1.23550        3.11595       -0.15903
